# vtk DataFile Version 2.0 
Atoms H2O
ASCII 
DATASET UNSTRUCTURED_GRID
POINTS 3 double 
     1.00000000000000	    0.00000000000000	    0.00000000000000	
    0.00000000000000	    1.00000000000000	    0.00000000000000	
    0.00000000000000	    0.00000000000000	    0.00000000000000	
CELLS 2 6
2 0 2
2 1 2
CELL_TYPES 2
3
3
POINT_DATA 3
SCALARS R_vdw double 1
LOOKUP_TABLE default
    1.200000
    1.200000
    1.520000
SCALARS R_cov double 1
LOOKUP_TABLE default
    0.370000
    0.370000
    0.730000
SCALARS Z double 1
LOOKUP_TABLE default
    1.000000
    1.000000
    8.000000
CELL_DATA 2
SCALARS bond_length double 1
LOOKUP_TABLE default
1.000000
1.000000
