# vtk DataFile Version 2.0
Trilinear interpolation
ASCII
DATASET RECTILINEAR_GRID
DIMENSIONS 20 20 20
X_COORDINATES 20 double
                   0	   0.052631578947368	    0.10526315789474	    0.15789473684211	    0.21052631578947	    0.26315789473684	    0.31578947368421	    0.36842105263158	    0.42105263157895	    0.47368421052632	    0.52631578947368	    0.57894736842105	    0.63157894736842	    0.68421052631579	    0.73684210526316	    0.78947368421053	    0.84210526315789	    0.89473684210526	    0.94736842105263	                   1	
Y_COORDINATES 20 double
                   0	   0.052631578947368	    0.10526315789474	    0.15789473684211	    0.21052631578947	    0.26315789473684	    0.31578947368421	    0.36842105263158	    0.42105263157895	    0.47368421052632	    0.52631578947368	    0.57894736842105	    0.63157894736842	    0.68421052631579	    0.73684210526316	    0.78947368421053	    0.84210526315789	    0.89473684210526	    0.94736842105263	                   1	
Z_COORDINATES 20 double
                   0	   0.052631578947368	    0.10526315789474	    0.15789473684211	    0.21052631578947	    0.26315789473684	    0.31578947368421	    0.36842105263158	    0.42105263157895	    0.47368421052632	    0.52631578947368	    0.57894736842105	    0.63157894736842	    0.68421052631579	    0.73684210526316	    0.78947368421053	    0.84210526315789	    0.89473684210526	    0.94736842105263	                   1	
POINT_DATA 8000
SCALARS data double
LOOKUP_TABLE default
0.1
0.305263157895
0.510526315789
0.715789473684
0.921052631579
1.12631578947
1.33157894737
1.53684210526
1.74210526316
1.94736842105
2.15263157895
2.35789473684
2.56315789474
2.76842105263
2.97368421053
3.17894736842
3.38421052632
3.58947368421
3.79473684211
4.0
0.2
0.397229916898
0.594459833795
0.791689750693
0.98891966759
1.18614958449
1.38337950139
1.58060941828
1.77783933518
1.97506925208
2.17229916898
2.36952908587
2.56675900277
2.76398891967
2.96121883657
3.15844875346
3.35567867036
3.55290858726
3.75013850416
3.94736842105
0.3
0.4891966759
0.678393351801
0.867590027701
1.0567867036
1.2459833795
1.4351800554
1.6243767313
1.8135734072
2.0027700831
2.191966759
2.3811634349
2.5703601108
2.7595567867
2.9487534626
3.1379501385
3.3271468144
3.5163434903
3.7055401662
3.89473684211
0.4
0.581163434903
0.762326869806
0.943490304709
1.12465373961
1.30581717452
1.48698060942
1.66814404432
1.84930747922
2.03047091413
2.21163434903
2.39279778393
2.57396121884
2.75512465374
2.93628808864
3.11745152355
3.29861495845
3.47977839335
3.66094182825
3.84210526316
0.5
0.673130193906
0.846260387812
1.01939058172
1.19252077562
1.36565096953
1.53878116343
1.71191135734
1.88504155125
2.05817174515
2.23130193906
2.40443213296
2.57756232687
2.75069252078
2.92382271468
3.09695290859
3.27008310249
3.4432132964
3.6163434903
3.78947368421
0.6
0.765096952909
0.930193905817
1.09529085873
1.26038781163
1.42548476454
1.59058171745
1.75567867036
1.92077562327
2.08587257618
2.25096952909
2.41606648199
2.5811634349
2.74626038781
2.91135734072
3.07645429363
3.24155124654
3.40664819945
3.57174515235
3.73684210526
0.7
0.857063711911
1.01412742382
1.17119113573
1.32825484765
1.48531855956
1.64238227147
1.79944598338
1.95650969529
2.1135734072
2.27063711911
2.42770083102
2.58476454294
2.74182825485
2.89889196676
3.05595567867
3.21301939058
3.37008310249
3.5271468144
3.68421052632
0.8
0.949030470914
1.09806094183
1.24709141274
1.39612188366
1.54515235457
1.69418282548
1.8432132964
1.99224376731
2.14127423823
2.29030470914
2.43933518006
2.58836565097
2.73739612188
2.8864265928
3.03545706371
3.18448753463
3.33351800554
3.48254847645
3.63157894737
0.9
1.04099722992
1.18199445983
1.32299168975
1.46398891967
1.60498614958
1.7459833795
1.88698060942
2.02797783934
2.16897506925
2.30997229917
2.45096952909
2.591966759
2.73296398892
2.87396121884
3.01495844875
3.15595567867
3.29695290859
3.4379501385
3.57894736842
1.0
1.13296398892
1.26592797784
1.39889196676
1.53185595568
1.6648199446
1.79778393352
1.93074792244
2.06371191136
2.19667590028
2.3296398892
2.46260387812
2.59556786704
2.72853185596
2.86149584488
2.9944598338
3.12742382271
3.26038781163
3.39335180055
3.52631578947
1.1
1.22493074792
1.34986149584
1.47479224377
1.59972299169
1.72465373961
1.84958448753
1.97451523546
2.09944598338
2.2243767313
2.34930747922
2.47423822715
2.59916897507
2.72409972299
2.84903047091
2.97396121884
3.09889196676
3.22382271468
3.3487534626
3.47368421053
1.2
1.31689750693
1.43379501385
1.55069252078
1.6675900277
1.78448753463
1.90138504155
2.01828254848
2.1351800554
2.25207756233
2.36897506925
2.48587257618
2.6027700831
2.71966759003
2.83656509695
2.95346260388
3.0703601108
3.18725761773
3.30415512465
3.42105263158
1.3
1.40886426593
1.51772853186
1.62659279778
1.73545706371
1.84432132964
1.95318559557
2.0620498615
2.17091412742
2.27977839335
2.38864265928
2.49750692521
2.60637119114
2.71523545706
2.82409972299
2.93296398892
3.04182825485
3.15069252078
3.2595567867
3.36842105263
1.4
1.50083102493
1.60166204986
1.70249307479
1.80332409972
1.90415512465
2.00498614958
2.10581717452
2.20664819945
2.30747922438
2.40831024931
2.50914127424
2.60997229917
2.7108033241
2.81163434903
2.91246537396
3.01329639889
3.11412742382
3.21495844875
3.31578947368
1.5
1.59279778393
1.68559556787
1.7783933518
1.87119113573
1.96398891967
2.0567867036
2.14958448753
2.24238227147
2.3351800554
2.42797783934
2.52077562327
2.6135734072
2.70637119114
2.79916897507
2.891966759
2.98476454294
3.07756232687
3.1703601108
3.26315789474
1.6
1.68476454294
1.76952908587
1.85429362881
1.93905817175
2.02382271468
2.10858725762
2.19335180055
2.27811634349
2.36288088643
2.44764542936
2.5324099723
2.61717451524
2.70193905817
2.78670360111
2.87146814404
2.95623268698
3.04099722992
3.12576177285
3.21052631579
1.7
1.77673130194
1.85346260388
1.93019390582
2.00692520776
2.0836565097
2.16038781163
2.23711911357
2.31385041551
2.39058171745
2.46731301939
2.54404432133
2.62077562327
2.69750692521
2.77423822715
2.85096952909
2.92770083102
3.00443213296
3.0811634349
3.15789473684
1.8
1.86869806094
1.93739612188
2.00609418283
2.07479224377
2.14349030471
2.21218836565
2.28088642659
2.34958448753
2.41828254848
2.48698060942
2.55567867036
2.6243767313
2.69307479224
2.76177285319
2.83047091413
2.89916897507
2.96786703601
3.03656509695
3.10526315789
1.9
1.96066481994
2.02132963989
2.08199445983
2.14265927978
2.20332409972
2.26398891967
2.32465373961
2.38531855956
2.4459833795
2.50664819945
2.56731301939
2.62797783934
2.68864265928
2.74930747922
2.80997229917
2.87063711911
2.93130193906
2.991966759
3.05263157895
2.0
2.05263157895
2.10526315789
2.15789473684
2.21052631579
2.26315789474
2.31578947368
2.36842105263
2.42105263158
2.47368421053
2.52631578947
2.57894736842
2.63157894737
2.68421052632
2.73684210526
2.78947368421
2.84210526316
2.89473684211
2.94736842105
3.0
0.147368421053
0.350138504155
0.552908587258
0.75567867036
0.958448753463
1.16121883657
1.36398891967
1.56675900277
1.76952908587
1.97229916898
2.17506925208
2.37783933518
2.58060941828
2.78337950139
2.98614958449
3.18891966759
3.39168975069
3.5944598338
3.7972299169
4.0
0.247645429363
0.442513485931
0.637381542499
0.832249599067
1.02711765563
1.2219857122
1.41685376877
1.61172182534
1.80658988191
2.00145793847
2.19632599504
2.39119405161
2.58606210818
2.78093016475
2.97579822132
3.17066627788
3.36553433445
3.56040239102
3.75527044759
3.95013850416
0.347922437673
0.534888467707
0.72185449774
0.908820527774
1.09578655781
1.28275258784
1.46971861787
1.65668464791
1.84365067794
2.03061670797
2.21758273801
2.40454876804
2.59151479808
2.77848082811
2.96544685814
3.15241288818
3.33937891821
3.52634494824
3.71331097828
3.90027700831
0.448199445983
0.627263449482
0.806327452981
0.985391456481
1.16445545998
1.34351946348
1.52258346698
1.70164747048
1.88071147398
2.05977547747
2.23883948097
2.41790348447
2.59696748797
2.77603149147
2.95509549497
3.13415949847
3.31322350197
3.49228750547
3.67135150897
3.85041551247
0.548476454294
0.719638431258
0.890800408223
1.06196238519
1.23312436215
1.40428633912
1.57544831608
1.74661029305
1.91777227001
2.08893424697
2.26009622394
2.4312582009
2.60242017787
2.77358215483
2.9447441318
3.11590610876
3.28706808573
3.45823006269
3.62939203966
3.80055401662
0.648753462604
0.812013413034
0.975273363464
1.13853331389
1.30179326432
1.46505321475
1.62831316518
1.79157311561
1.95483306604
2.11809301647
2.2813529669
2.44461291733
2.60787286776
2.7711328182
2.93439276863
3.09765271906
3.26091266949
3.42417261992
3.58743257035
3.75069252078
0.749030470914
0.90438839481
1.05974631871
1.2151042426
1.3704621665
1.52582009039
1.68117801429
1.83653593818
1.99189386208
2.14725178597
2.30260970987
2.45796763377
2.61332555766
2.76868348156
2.92404140545
3.07939932935
3.23475725324
3.39011517714
3.54547310104
3.70083102493
0.849307479224
0.996763376586
1.14421927395
1.29167517131
1.43913106867
1.58658696603
1.73404286339
1.88149876075
2.02895465811
2.17641055547
2.32386645284
2.4713223502
2.61877824756
2.76623414492
2.91369004228
3.06114593964
3.208601837
3.35605773436
3.50351363172
3.65096952909
0.949584487535
1.08913835836
1.22869222919
1.36824610001
1.50779997084
1.64735384167
1.78690771249
1.92646158332
2.06601545415
2.20556932497
2.3451231958
2.48467706663
2.62423093745
2.76378480828
2.90333867911
3.04289254993
3.18244642076
3.32200029159
3.46155416241
3.60110803324
1.04986149584
1.18151334014
1.31316518443
1.44481702872
1.57646887301
1.70812071731
1.8397725616
1.97142440589
2.10307625018
2.23472809447
2.36637993877
2.49803178306
2.62968362735
2.76133547164
2.89298731594
3.02463916023
3.15629100452
3.28794284881
3.4195946931
3.5512465374
1.15013850416
1.27388832191
1.39763813967
1.52138795743
1.64513777519
1.76888759294
1.8926374107
2.01638722846
2.14013704622
2.26388686397
2.38763668173
2.51138649949
2.63513631725
2.75888613501
2.88263595276
3.00638577052
3.13013558828
3.25388540604
3.37763522379
3.50138504155
1.25041551247
1.36626330369
1.48211109491
1.59795888614
1.71380667736
1.82965446858
1.9455022598
2.06135005103
2.17719784225
2.29304563347
2.4088934247
2.52474121592
2.64058900714
2.75643679837
2.87228458959
2.98813238081
3.10398017204
3.21982796326
3.33567575448
3.45152354571
1.35069252078
1.45863828546
1.56658405015
1.67452981484
1.78247557953
1.89042134422
1.99836710891
2.1063128736
2.21425863829
2.32220440297
2.43015016766
2.53809593235
2.64604169704
2.75398746173
2.86193322642
2.96987899111
3.0778247558
3.18577052048
3.29371628517
3.40166204986
1.45096952909
1.55101326724
1.65105700539
1.75110074355
1.8511444817
1.95118821986
2.05123195801
2.15127569617
2.25131943432
2.35136317247
2.45140691063
2.55145064878
2.65149438694
2.75153812509
2.85158186325
2.9516256014
3.05166933955
3.15171307771
3.25175681586
3.35180055402
1.5512465374
1.64338824902
1.73552996064
1.82767167226
1.91981338388
2.01195509549
2.10409680711
2.19623851873
2.28838023035
2.38052194197
2.47266365359
2.56480536521
2.65694707683
2.74908878845
2.84123050007
2.93337221169
3.02551392331
3.11765563493
3.20979734655
3.30193905817
1.65152354571
1.73576323079
1.82000291588
1.90424260096
1.98848228605
2.07272197113
2.15696165622
2.2412013413
2.32544102639
2.40968071147
2.49392039656
2.57816008164
2.66239976673
2.74663945182
2.8308791369
2.91511882199
2.99935850707
3.08359819216
3.16783787724
3.25207756233
1.75180055402
1.82813821257
1.90447587112
1.98081352967
2.05715118822
2.13348884677
2.20982650532
2.28616416387
2.36250182242
2.43883948097
2.51517713952
2.59151479808
2.66785245663
2.74419011518
2.82052777373
2.89686543228
2.97320309083
3.04954074938
3.12587840793
3.20221606648
1.85207756233
1.92051319434
1.98894882636
2.05738445838
2.12582009039
2.19425572241
2.26269135442
2.33112698644
2.39956261846
2.46799825047
2.53643388249
2.60486951451
2.67330514652
2.74174077854
2.81017641056
2.87861204257
2.94704767459
3.0154833066
3.08391893862
3.15235457064
1.95235457064
2.01288817612
2.0734217816
2.13395538708
2.19448899256
2.25502259805
2.31555620353
2.37608980901
2.43662341449
2.49715701997
2.55769062546
2.61822423094
2.67875783642
2.7392914419
2.79982504738
2.86035865286
2.92089225835
2.98142586383
3.04195946931
3.10249307479
2.05263157895
2.10526315789
2.15789473684
2.21052631579
2.26315789474
2.31578947368
2.36842105263
2.42105263158
2.47368421053
2.52631578947
2.57894736842
2.63157894737
2.68421052632
2.73684210526
2.78947368421
2.84210526316
2.89473684211
2.94736842105
3.0
3.05263157895
0.194736842105
0.395013850416
0.595290858726
0.795567867036
0.995844875346
1.19612188366
1.39639889197
1.59667590028
1.79695290859
1.9972299169
2.19750692521
2.39778393352
2.59806094183
2.79833795014
2.99861495845
3.19889196676
3.39916897507
3.59944598338
3.79972299169
4.0
0.295290858726
0.487797054964
0.680303251203
0.872809447441
1.06531564368
1.25782183992
1.45032803616
1.6428342324
1.83534042863
2.02784662487
2.22035282111
2.41285901735
2.60536521359
2.79787140983
2.99037760607
3.1828838023
3.37538999854
3.56789619478
3.76040239102
3.95290858726
0.395844875346
0.580580259513
0.76531564368
0.950051027847
1.13478641201
1.31952179618
1.50425718035
1.68899256451
1.87372794868
2.05846333285
2.24319871701
2.42793410118
2.61266948535
2.79740486951
2.98214025368
3.16687563785
3.35161102201
3.53634640618
3.72108179035
3.90581717452
0.496398891967
0.673363464062
0.850328036157
1.02729260825
1.20425718035
1.38122175244
1.55818632454
1.73515089663
1.91211546873
2.08908004082
2.26604461292
2.44300918501
2.61997375711
2.7969383292
2.9739029013
3.15086747339
3.32783204549
3.50479661758
3.68176118968
3.85872576177
0.596952908587
0.766146668611
0.935340428634
1.10453418866
1.27372794868
1.4429217087
1.61211546873
1.78130922875
1.95050298877
2.1196967488
2.28889050882
2.45808426884
2.62727802887
2.79647178889
2.96566554891
3.13485930894
3.30405306896
3.47324682898
3.64244058901
3.81163434903
0.697506925208
0.858929873159
1.02035282111
1.18177576906
1.34319871701
1.50462166497
1.66604461292
1.82746756087
1.98889050882
2.15031345677
2.31173640472
2.47315935268
2.63458230063
2.79600524858
2.95742819653
3.11885114448
3.28027409243
3.44169704038
3.60311998834
3.76454293629
0.798060941828
0.951713077708
1.10536521359
1.25901734947
1.41266948535
1.56632162123
1.71997375711
1.87362589299
2.02727802887
2.18093016475
2.33458230063
2.48823443651
2.64188657239
2.79553870827
2.94919084415
3.10284298003
3.25649511591
3.41014725179
3.56379938767
3.71745152355
0.898614958449
1.04449628226
1.19037760607
1.33625892987
1.48214025368
1.62802157749
1.7739029013
1.91978422511
2.06566554891
2.21154687272
2.35742819653
2.50330952034
2.64919084415
2.79507216795
2.94095349176
3.08683481557
3.23271613938
3.37859746319
3.524478787
3.6703601108
0.999168975069
1.13727948681
1.27538999854
1.41350051028
1.55161102201
1.68972153375
1.82783204549
1.96594255722
2.10405306896
2.2421635807
2.38027409243
2.51838460417
2.65649511591
2.79460562764
2.93271613938
3.07082665112
3.20893716285
3.34704767459
3.48515818632
3.62326869806
1.09972299169
1.23006269135
1.36040239102
1.49074209068
1.62108179035
1.75142149001
1.88176118968
2.01210088934
2.14244058901
2.27278028867
2.40311998834
2.533459688
2.66379938767
2.79413908733
2.924478787
3.05481848666
3.18515818632
3.31549788599
3.44583758565
3.57617728532
1.20027700831
1.3228458959
1.4454147835
1.56798367109
1.69055255868
1.81312144627
1.93569033387
2.05825922146
2.18082810905
2.30339699665
2.42596588424
2.54853477183
2.67110365943
2.79367254702
2.91624143461
3.0388103222
3.1613792098
3.28394809739
3.40651698498
3.52908587258
1.30083102493
1.41562910045
1.53042717597
1.64522525149
1.76002332702
1.87482140254
1.98961947806
2.10441755358
2.2192156291
2.33401370462
2.44881178014
2.56360985566
2.67840793119
2.79320600671
2.90800408223
3.02280215775
3.13760023327
3.25239830879
3.36719638431
3.48199445983
1.40138504155
1.508412305
1.61543956845
1.7224668319
1.82949409535
1.9365213588
2.04354862225
2.1505758857
2.25760314915
2.3646304126
2.47165767605
2.5786849395
2.68571220295
2.79273946639
2.89976672984
3.00679399329
3.11382125674
3.22084852019
3.32787578364
3.43490304709
1.50193905817
1.60119550955
1.70045196093
1.79970841231
1.89896486368
1.99822131506
2.09747776644
2.19673421782
2.29599066919
2.39524712057
2.49450357195
2.59376002333
2.6930164747
2.79227292608
2.89152937746
2.99078582884
3.09004228022
3.18929873159
3.28855518297
3.38781163435
1.60249307479
1.6939787141
1.7854643534
1.87694999271
1.96843563202
2.05992127132
2.15140691063
2.24289254993
2.33437818924
2.42586382855
2.51734946785
2.60883510716
2.70032074646
2.79180638577
2.88329202508
2.97477766438
3.06626330369
3.15774894299
3.2492345823
3.34072022161
1.70304709141
1.78676191865
1.87047674588
1.95419157312
2.03790640035
2.12162122758
2.20533605482
2.28905088205
2.37276570929
2.45648053652
2.54019536376
2.62391019099
2.70762501822
2.79133984546
2.87505467269
2.95876949993
3.04248432716
3.1261991544
3.20991398163
3.29362880886
1.80360110803
1.8795451232
1.95548913836
2.03143315352
2.10737716868
2.18332118385
2.25926519901
2.33520921417
2.41115322933
2.4870972445
2.56304125966
2.63898527482
2.71492928998
2.79087330515
2.86681732031
2.94276133547
3.01870535063
3.0946493658
3.17059338096
3.24653739612
1.90415512465
1.97232832774
2.04050153084
2.10867473393
2.17684793702
2.24502114011
2.3131943432
2.38136754629
2.44954074938
2.51771395247
2.58588715556
2.65406035865
2.72223356174
2.79040676483
2.85857996793
2.92675317102
2.99492637411
3.0630995772
3.13127278029
3.19944598338
2.00470914127
2.06511153229
2.12551392331
2.18591631433
2.24631870535
2.30672109637
2.36712348739
2.42752587841
2.48792826943
2.54833066045
2.60873305147
2.66913544248
2.7295378335
2.78994022452
2.85034261554
2.91074500656
2.97114739758
3.0315497886
3.09195217962
3.15235457064
2.10526315789
2.15789473684
2.21052631579
2.26315789474
2.31578947368
2.36842105263
2.42105263158
2.47368421053
2.52631578947
2.57894736842
2.63157894737
2.68421052632
2.73684210526
2.78947368421
2.84210526316
2.89473684211
2.94736842105
3.0
3.05263157895
3.10526315789
0.242105263158
0.439889196676
0.637673130194
0.835457063712
1.03324099723
1.23102493075
1.42880886427
1.62659279778
1.8243767313
2.02216066482
2.21994459834
2.41772853186
2.61551246537
2.81329639889
3.01108033241
3.20886426593
3.40664819945
3.60443213296
3.80221606648
4.0
0.342936288089
0.533080623998
0.723224959907
0.913369295816
1.10351363172
1.29365796763
1.48380230354
1.67394663945
1.86409097536
2.05423531127
2.24437964718
2.43452398309
2.624668319
2.81481265491
3.00495699081
3.19510132672
3.38524566263
3.57538999854
3.76553433445
3.95567867036
0.443767313019
0.626272051319
0.808776789619
0.99128152792
1.17378626622
1.35629100452
1.53879574282
1.72130048112
1.90380521942
2.08630995772
2.26881469602
2.45131943432
2.63382417262
2.81632891092
2.99883364922
3.18133838752
3.36384312582
3.54634786412
3.72885260242
3.91135734072
0.54459833795
0.719463478641
0.894328619332
1.06919376002
1.24405890071
1.41892404141
1.5937891821
1.76865432279
1.94351946348
2.11838460417
2.29324974486
2.46811488555
2.64298002624
2.81784516693
2.99271030763
3.16757544832
3.34244058901
3.5173057297
3.69217087039
3.86703601108
0.645429362881
0.812654905963
0.979880449045
1.14710599213
1.31433153521
1.48155707829
1.64878262137
1.81600816446
1.98323370754
2.15045925062
2.3176847937
2.48491033678
2.65213587987
2.81936142295
2.98658696603
3.15381250911
3.32103805219
3.48826359528
3.65548913836
3.82271468144
0.746260387812
0.905846333285
1.06543227876
1.22501822423
1.3846041697
1.54419011518
1.70377606065
1.86336200612
2.0229479516
2.18253389707
2.34211984254
2.50170578802
2.66129173349
2.82087767896
2.98046362444
3.14004956991
3.29963551538
3.45922146085
3.61880740633
3.7783933518
0.847091412742
0.999037760607
1.15098410847
1.30293045633
1.4548768042
1.60682315206
1.75876949993
1.91071584779
2.06266219566
2.21460854352
2.36655489138
2.51850123925
2.67044758711
2.82239393498
2.97434028284
3.1262866307
3.27823297857
3.43017932643
3.5821256743
3.73407202216
0.947922437673
1.09222918793
1.23653593818
1.38084268844
1.52514943869
1.66945618895
1.8137629392
1.95806968946
2.10237643971
2.24668318997
2.39098994022
2.53529669048
2.67960344073
2.82391019099
2.96821694125
3.1125236915
3.25683044176
3.40113719201
3.54544394227
3.68975069252
1.0487534626
1.18542061525
1.3220877679
1.45875492054
1.59542207319
1.73208922583
1.86875637848
2.00542353113
2.14209068377
2.27875783642
2.41542498907
2.55209214171
2.68875929436
2.825426447
2.96209359965
3.0987607523
3.23542790494
3.37209505759
3.50876221023
3.64542936288
1.14958448753
1.27861204257
1.40763959761
1.53666715265
1.66569470768
1.79472226272
1.92374981776
2.05277737279
2.18180492783
2.31083248287
2.43986003791
2.56888759294
2.69791514798
2.82694270302
2.95597025806
3.08499781309
3.21402536813
3.34305292317
3.4720804782
3.60110803324
1.25041551247
1.37180346989
1.49319142732
1.61457938475
1.73596734218
1.85735529961
1.97874325703
2.10013121446
2.22151917189
2.34290712932
2.46429508675
2.58568304418
2.7070710016
2.82845895903
2.94984691646
3.07123487389
3.19262283132
3.31401078874
3.43539874617
3.5567867036
1.3512465374
1.46499489722
1.57874325703
1.69249161685
1.80623997667
1.91998833649
2.03373669631
2.14748505613
2.26123341595
2.37498177577
2.48873013559
2.60247849541
2.71622685523
2.82997521505
2.94372357487
3.05747193468
3.1712202945
3.28496865432
3.39871701414
3.51246537396
1.45207756233
1.55818632454
1.66429508675
1.77040384896
1.87651261117
1.98262137338
2.08873013559
2.1948388978
2.30094766001
2.40705642222
2.51316518443
2.61927394664
2.72538270885
2.83149147106
2.93760023327
3.04370899548
3.14981775769
3.2559265199
3.36203528211
3.46814404432
1.55290858726
1.65137775186
1.74984691646
1.84831608106
1.94678524566
2.04525441026
2.14372357487
2.24219273947
2.34066190407
2.43913106867
2.53760023327
2.63606939787
2.73453856247
2.83300772707
2.93147689168
3.02994605628
3.12841522088
3.22688438548
3.32535355008
3.42382271468
1.65373961219
1.74456917918
1.83539874617
1.92622831317
2.01705788016
2.10788744715
2.19871701414
2.28954658113
2.38037614813
2.47120571512
2.56203528211
2.6528648491
2.7436944161
2.83452398309
2.92535355008
3.01618311707
3.10701268406
3.19784225106
3.28867181805
3.37950138504
1.75457063712
1.8377606065
1.92095057589
2.00414054527
2.08733051465
2.17052048404
2.25371045342
2.3369004228
2.42009039219
2.50328036157
2.58647033095
2.66966030034
2.75285026972
2.8360402391
2.91923020849
3.00242017787
3.08561014725
3.16880011664
3.25199008602
3.3351800554
1.85540166205
1.93095203382
2.0065024056
2.08205277737
2.15760314915
2.23315352092
2.3087038927
2.38425426447
2.45980463624
2.53535500802
2.61090537979
2.68645575157
2.76200612334
2.83755649512
2.91310686689
2.98865723866
3.06420761044
3.13975798221
3.21530835399
3.29085872576
1.95623268698
2.02414346115
2.09205423531
2.15996500948
2.22787578364
2.29578655781
2.36369733197
2.43160810614
2.4995188803
2.56742965447
2.63534042863
2.7032512028
2.77116197696
2.83907275113
2.9069835253
2.97489429946
3.04280507363
3.11071584779
3.17862662196
3.24653739612
2.05706371191
2.11733488847
2.17760606502
2.23787724158
2.29814841814
2.35841959469
2.41869077125
2.47896194781
2.53923312436
2.59950430092
2.65977547747
2.72004665403
2.78031783059
2.84058900714
2.9008601837
2.96113136026
3.02140253681
3.08167371337
3.14194488993
3.20221606648
2.15789473684
2.21052631579
2.26315789474
2.31578947368
2.36842105263
2.42105263158
2.47368421053
2.52631578947
2.57894736842
2.63157894737
2.68421052632
2.73684210526
2.78947368421
2.84210526316
2.89473684211
2.94736842105
3.0
3.05263157895
3.10526315789
3.15789473684
0.289473684211
0.484764542936
0.680055401662
0.875346260388
1.07063711911
1.26592797784
1.46121883657
1.65650969529
1.85180055402
2.04709141274
2.24238227147
2.43767313019
2.63296398892
2.82825484765
3.02354570637
3.2188365651
3.41412742382
3.60941828255
3.80470914127
4.0
0.390581717452
0.578364193031
0.766146668611
0.95392914419
1.14171161977
1.32949409535
1.51727657093
1.70505904651
1.89284152209
2.08062399767
2.26840647325
2.45618894883
2.64397142441
2.83175389999
3.01953637556
3.20731885114
3.39510132672
3.5828838023
3.77066627788
3.95844875346
0.491689750693
0.671963843126
0.852237935559
1.03251202799
1.21278612043
1.39306021286
1.57333430529
1.75360839773
1.93388249016
2.11415658259
2.29443067503
2.47470476746
2.65497885989
2.83525295233
3.01552704476
3.19580113719
3.37607522963
3.55634932206
3.73662341449
3.91689750693
0.592797783934
0.765563493221
0.938329202508
1.11109491179
1.28386062108
1.45662633037
1.62939203966
1.80215774894
1.97492345823
2.14768916752
2.3204548768
2.49322058609
2.66598629538
2.83875200467
3.01151771395
3.18428342324
3.35704913253
3.52981484181
3.7025805511
3.87534626039
0.693905817175
0.859163143315
1.02442046946
1.1896777956
1.35493512174
1.52019244788
1.68544977402
1.85070710016
2.0159644263
2.18122175244
2.34647907858
2.51173640472
2.67699373086
2.84225105701
3.00750838315
3.17276570929
3.33802303543
3.50328036157
3.66853768771
3.83379501385
0.795013850416
0.95276279341
1.1105117364
1.2682606794
1.42600962239
1.58375856539
1.74150750838
1.89925645138
2.05700539437
2.21475433737
2.37250328036
2.53025222336
2.68800116635
2.84575010935
3.00349905234
3.16124799533
3.31899693833
3.47674588132
3.63449482432
3.79224376731
0.896121883657
1.0463624435
1.19660300335
1.3468435632
1.49708412305
1.6473246829
1.79756524275
1.9478058026
2.09804636244
2.24828692229
2.39852748214
2.54876804199
2.69900860184
2.84924916169
2.99948972153
3.14973028138
3.29997084123
3.45021140108
3.60045196093
3.75069252078
0.997229916898
1.1399620936
1.2826942703
1.425426447
1.56815862371
1.71089080041
1.85362297711
1.99635515381
2.13908733051
2.28181950722
2.42455168392
2.56728386062
2.71001603732
2.85274821403
2.99548039073
3.13821256743
3.28094474413
3.42367692083
3.56640909754
3.70914127424
1.09833795014
1.23356174369
1.36878553725
1.50400933081
1.63923312436
1.77445691792
1.90968071147
2.04490450503
2.18012829859
2.31535209214
2.4505758857
2.58579967925
2.72102347281
2.85624726637
2.99147105992
3.12669485348
3.26191864703
3.39714244059
3.53236623414
3.6675900277
1.19944598338
1.32716139379
1.4548768042
1.58259221461
1.71030762502
1.83802303543
1.96573844584
2.09345385625
2.22116926666
2.34888467707
2.47660008748
2.60431549789
2.7320309083
2.85974631871
2.98746172912
3.11517713952
3.24289254993
3.37060796034
3.49832337075
3.62603878116
1.30055401662
1.42076104388
1.54096807115
1.66117509841
1.78138212567
1.90158915294
2.0217961802
2.14200320746
2.26221023473
2.38241726199
2.50262428925
2.62283131652
2.74303834378
2.86324537105
2.98345239831
3.10365942557
3.22386645284
3.3440734801
3.46428050736
3.58448753463
1.40166204986
1.51436069398
1.6270593381
1.73975798221
1.85245662633
1.96515527045
2.07785391456
2.19055255868
2.3032512028
2.41594984692
2.52864849103
2.64134713515
2.75404577927
2.86674442339
2.9794430675
3.09214171162
3.20484035574
3.31753899985
3.43023764397
3.54293628809
1.5027700831
1.60796034407
1.71315060504
1.81834086602
1.92353112699
2.02872138796
2.13391164893
2.2391019099
2.34429217087
2.44948243184
2.55467269281
2.65986295378
2.76505321475
2.87024347573
2.9754337367
3.08062399767
3.18581425864
3.29100451961
3.39619478058
3.50138504155
1.60387811634
1.70155999417
1.79924187199
1.89692374982
1.99460562764
2.09228750547
2.18996938329
2.28765126112
2.38533313894
2.48301501677
2.58069689459
2.67837877242
2.77606065024
2.87374252807
2.97142440589
3.06910628371
3.16678816154
3.26447003936
3.36215191719
3.45983379501
1.70498614958
1.79515964426
1.88533313894
1.97550663362
2.0656801283
2.15585362298
2.24602711766
2.33620061233
2.42637410701
2.51654760169
2.60672109637
2.69689459105
2.78706808573
2.87724158041
2.96741507508
3.05758856976
3.14776206444
3.23793555912
3.3281090538
3.41828254848
1.80609418283
1.88875929436
1.97142440589
2.05408951742
2.13675462895
2.21941974049
2.30208485202
2.38474996355
2.46741507508
2.55008018662
2.63274529815
2.71541040968
2.79807552121
2.88074063275
2.96340574428
3.04607085581
3.12873596734
3.21140107887
3.29406619041
3.37673130194
1.90720221607
1.98235894445
2.05751567284
2.13267240122
2.20782912961
2.282985858
2.35814258638
2.43329931477
2.50845604315
2.58361277154
2.65876949993
2.73392622831
2.8090829567
2.88423968509
2.95939641347
3.03455314186
3.10970987024
3.18486659863
3.26002332702
3.3351800554
2.00831024931
2.07595859455
2.14360693979
2.21125528503
2.27890363027
2.34655197551
2.41420032075
2.48184866599
2.54949701123
2.61714535647
2.68479370171
2.75244204695
2.82009039219
2.88773873743
2.95538708267
3.0230354279
3.09068377314
3.15833211838
3.22598046362
3.29362880886
2.10941828255
2.16955824464
2.22969820674
2.28983816883
2.34997813092
2.41011809302
2.47025805511
2.5303980172
2.5905379793
2.65067794139
2.71081790348
2.77095786558
2.83109782767
2.89123778977
2.95137775186
3.01151771395
3.07165767605
3.13179763814
3.19193760023
3.25207756233
2.21052631579
2.26315789474
2.31578947368
2.36842105263
2.42105263158
2.47368421053
2.52631578947
2.57894736842
2.63157894737
2.68421052632
2.73684210526
2.78947368421
2.84210526316
2.89473684211
2.94736842105
3.0
3.05263157895
3.10526315789
3.15789473684
3.21052631579
0.336842105263
0.529639889197
0.72243767313
0.915235457064
1.108033241
1.30083102493
1.49362880886
1.6864265928
1.87922437673
2.07202216066
2.2648199446
2.45761772853
2.65041551247
2.8432132964
3.03601108033
3.22880886427
3.4216066482
3.61440443213
3.80720221607
4.0
0.438227146814
0.623647762064
0.809068377314
0.994488992565
1.17990960781
1.36533022306
1.55075083831
1.73617145356
1.92159206881
2.10701268406
2.29243329931
2.47785391456
2.66327452981
2.84869514506
3.03411576031
3.21953637556
3.40495699081
3.59037760607
3.77579822132
3.96121883657
0.539612188366
0.717655634932
0.895699081499
1.07374252807
1.25178597463
1.4298294212
1.60787286776
1.78591631433
1.9639597609
2.14200320746
2.32004665403
2.4980901006
2.67613354716
2.85417699373
3.0322204403
3.21026388686
3.38830733343
3.56635078
3.74439422656
3.92243767313
0.640997229917
0.8116635078
0.982329785683
1.15299606357
1.32366234145